CRYSTAL
PRIMVEC
 30.18534264374742 -0.00000000000000 0.00000000000000
 -15.09267132187371 26.14127355142300 0.00000000000000
 -0.00000000000000 -0.00000000000000 20.00000000000000
PRIMCOORD
 546 1
 16   -10.45353664521645    24.86817969922313    -1.68742372504544
 16   -10.40495781503826    24.84771917815507    -4.79249644060705
 42   -12.25284425285142    24.74223636804188    -3.26737661198260
 16   -13.06904821924145    23.12086724419961    -1.70696239853527
 16   -13.05034112528704    23.08384309043402    -4.81186840147250
 16    -4.99103971594969    25.15664865097839    -1.58238196779588
 16    -4.93928270679603    25.14037269186342    -4.68919867065925
 42    -6.78886635004799    25.06519283677974    -3.16999048534078
 16    -7.62732923283316    23.44638725060484    -1.62343927251936
 16    -7.57170131662901    23.41691873652623    -4.72941972890203
 42    -9.42193723585700    23.32964826458007    -3.21161262812973
 16   -10.25089848296971    21.71354002916701    -1.65298485308958
 16   -10.21169876179155    21.66964048214951    -4.75860764551439
 42   -12.05370609646496    21.57657915283246    -3.22950891331216
 16     0.50306508426494    25.36713609086199    -1.53742940152904
 16     0.50040778974869    25.36084371679719    -4.64528279160122
 42    -1.32338625287343    25.30540172287125    -3.09360455501915
 16    -2.15379562323210    23.68815565313260    -1.53932342464986
 16    -2.12841155282546    23.67057157164204    -4.64685523823838
 42    -3.96509501407923    23.61073392952302    -3.11289941454932
 16    -4.80279553002326    21.99450740768293    -1.56074566692205
 16    -4.75975003182409    21.96709108771145    -4.66775375392326
 42    -6.60316046967161    21.89443098068539    -3.14419046255609
 16    -7.43928638690329    20.27807420460454    -1.58779983755967
 16    -7.39704366073413    20.24075447166848    -4.69445239714139
 42    -9.23860347273992    20.15587598706989    -3.16924648372325
 16   -10.06809789398740    18.54172744681198    -1.60220936208418
 16   -10.04343058766474    18.49497284682494    -4.70892098979415
 16     5.99898460097829    25.58963835823378    -1.60220935632939
 16     5.94616027871185    25.59165314779385    -4.70892098420430
 42     4.14753134888668    25.51709618192453    -3.12400792544297
 16     3.34638535503876    23.89436053318579    -1.55288859420414
 16     3.31208837585478    23.88526290898541    -4.66034596658272
 42     1.50305611789512    23.82706203721541    -3.08907439806226
 16     0.68329714531806    22.21056417161654    -1.52344997063334
 16     0.67646099647123    22.19524982520954    -4.63116691927940
 42    -1.14551272060275    22.13904144383690    -3.07774182531417
 16    -1.97972472036187    20.52265556573711    -1.51955685253686
 16    -1.96138649432720    20.50428000684501    -4.62717621873236
 42    -3.79338839973660    20.43764868491658    -3.08902157384355
 16    -4.63285388646601    18.81767684131854    -1.53470319053330
 16    -4.60236753278474    18.79670590744768    -4.64213872719818
 42    -6.43754614082007    18.71488169133953    -3.11042028055794
 16    -7.27364460542195    17.09214802694747    -1.55288859613338
 16    -7.24861733870672    17.06699478179977    -4.66034596841686
 42    -9.07954789631734    16.97459298532686    -3.12400792964692
 16    11.46511115540432    25.89896767020494    -1.70696239385905
 16    11.42369374840493    25.90127893462872    -4.81186839686345
 42     9.62004737542531    25.79179964882551    -3.22950890726586
 16     8.83725516789055    24.16204201648786    -1.65298484927192
 16     8.77963718366402    24.15004384060206    -4.75860764179500
 42     6.98213103188983    24.06420084741108    -3.16924647958652
 16     6.18829925078668    22.44484743085221    -1.58779983525204
 16     6.13485805176445    22.42692402624439    -4.69445239491842
 42     4.33366470116814    22.35891119043802    -3.11042027892007
 16     3.52034178658018    20.74460427620769    -1.53470318992540
 16     3.48693725025630    20.72868778672619    -4.64213872662962
 42     1.67587608839271    20.66619160395082    -3.07179828575510
 16     0.84400829452679    19.05001469839749    -1.50769073950376
 16     0.83627284708262    19.04076549553394    -4.61543586312672
 42    -0.98519881112592    18.97069491619835    -3.06077456863038
 16    -1.82712951331196    17.34719883605306    -1.50769073868222
 16    -1.81525174556454    17.34512434008139    -4.61543586230507
 42    -3.64271366832145    17.25952902640653    -3.07179828495086
 16    -4.48389007384484    15.62774416507519    -1.52344996871629
 16    -4.46720938436378    15.62948105624001    -4.63116691734865
 42    -6.29369777632791    15.52942732757357    -3.08907439779690
 16    -7.12744551508044    13.89337266398230    -1.53742940096777
 16    -7.12066750841833    13.89421756325431    -4.64528279100269
 16    14.29269588799456    24.51006775638124    -1.72775534460351
 16    14.27987500963940    24.49096656480056    -4.83244327298173
 42    12.46115602098645    24.38142974131772    -3.26737661156031
 16    11.67057234386084    22.76021197527945    -1.68742372638893
 16    11.62856359467985    22.72837174001059    -4.79249644193155
 42     9.82236533102302    22.63608640173509    -3.21161262742305
 16     9.02616025977875    21.02354078593146    -1.62343927295199
 16     8.97282581782069    20.99009985774996    -4.72941972932242
 42     7.17004232226484    20.91256275815411    -3.14419046172174
 16     6.35652858335291    19.30336276946909    -1.56074566639990
 16     6.31126260373435    19.27979243552780    -4.66775375339369
 42     4.50354581419117    19.20761991631652    -3.08902157290759
 16     3.67033209531558    17.59443765538788    -1.51955685103350
 16     3.64524928153058    17.58774406385105    -4.62717621722743
 42     1.82903179301651    17.50913327975490    -3.06077456748089
 16     0.98312118845562    15.88533356723074    -1.50769073698473
 16     0.97897886837974    15.89665725916276    -4.61543586062562
 42    -0.84383301272671    15.80271890372478    -3.06077456592859
 16    -1.69060740662129    14.16545387998746    -1.51955684745608
 16    -1.68386281860952    14.19052302460106    -4.62717621370724
 42    -3.50754463968579    14.07970972492885    -3.07774182090762
 16    -4.34497544913803    12.43195401503193    -1.53932341926175
 16    -4.34243922026987    12.46272930214388    -4.64685523290351
 42    -6.16075631375356    12.34248658950120    -3.09360455177309
 42    15.30123728374936    22.98117115288514    -3.26766412897956
 16    14.49636623780101    21.36800213826753    -1.68827562619707
 16    14.48187680165252    21.31864847058822    -4.79343410912186
 42    12.66254416852308    21.22598577015270    -3.22966499372113
 16    11.85658491119950    19.62046612772306    -1.63955853506369
 16    11.82014447862862    19.57042896057341    -4.74540950485939
 42    10.00885557967694    19.48800783770762    -3.16999048815356
 16     9.18914532460281    17.88531639265603    -1.58238197015168
 16     9.14917142273890    17.84863148849795    -4.68919867291959
 42     7.33737155140408    17.76977958076272    -3.11289941486055
 16     6.49877103868681    16.16243743206811    -1.53932342387672
 16     6.47085073957601    16.14924622258148    -4.64685523741638
 42     4.65305732777729    16.06379593051524    -3.07774182310112
 16     3.80059289652788    14.44423876421512    -1.52344996685216
 16     3.79074835607063    14.45781621420425    -4.63116691549785
 42     1.96683754796178    14.35682646909165    -3.07179828119833
 16     1.11251206642992    12.72026598280488    -1.53470318344544
 16     1.11543024941548    12.75715340168708    -4.64213872021676
 42    -0.71015744831359    12.63727849794669    -3.08902156631746
 16    -1.55373308968607    10.98467692196676    -1.56074565772169
 16    -1.55151260784744    11.03566357360932    -4.66775374486277
 42    -3.37227657355000    10.90203358838453    -3.11289940670625
 16    -4.19810564709544     9.24058205457242    -1.58238196008217
 16    -4.20988875413822     9.29354291753261    -4.68919866305427
 16    17.31248548728839    19.96634867647188    -1.65467603254476
 16    17.32350751320934    19.91062485773494    -4.76045306174450
 42    15.49387563956117    19.82024606603380    -3.21375303612011
 16    14.67631615976220    18.21700854418957    -1.62703981793954
 16    14.66233112796907    18.15867738098282    -4.73334014653143
 42    12.84204623732361    18.07475856658061    -3.17214778895354
 16    12.01431526309853    16.47552502075006    -1.58487842301170
 16    11.98977767019436    16.42819961960891    -4.69193747035708
 42    10.17130815819442    16.34724414244331    -3.12516188800416
 16     9.32631201708269    14.74537711615536    -1.54963017321875
 16     9.30731932456219    14.72124896298220    -4.65731634482898
 42     7.48414253285656    14.63465878632307    -3.09360455474468
 16     6.62438039762674    13.02203834556148    -1.53742939959466
 16     6.62025968542068    13.02748581654392    -4.64528278962562
 42     4.79064162492947    12.92605773416177    -3.08907439396596
 16     3.92725921507269    11.29603853936138    -1.55288858844540
 16     3.93652892774999    11.33028940604754    -4.66034596085541
 42     2.10388140362682    11.20875421701140    -3.11042027140579
 16     1.25098709672662     9.55962546228111    -1.58779982621384
 16     1.26218557004617     9.61486859994288    -4.69445238599668
 42    -0.56688189222654     9.47555335953605    -3.14419045150680
 16    -1.39883107005377     7.81261905950663    -1.62343926159545
 16    -1.40112454381991     7.87552850494672    -4.72941971814970
 42    -3.21998927172851     7.72934642343678    -3.16999047634170
 42    18.30874207342034    18.40551761221949    -3.17197406851670
 16    17.48259839218808    16.79660904251971    -1.59376240183756
 16    17.48505742201715    16.74516773849861    -4.70085386335362
 42    15.66049612757083    16.65874539316756    -3.15035914327871
 16    14.82803939217494    15.05529978034554    -1.56837008027911
 16    14.81748542838110    15.00904582803129    -4.67600008253896
 42    12.99561230916856    14.92688635078279    -3.11817675656345
 16    12.14831867748117    13.32480388204194    -1.54371923326786
 16    12.13997863130949    13.29511001633087    -4.65181471124163
 42    10.31354568245338    13.21134055299766    -3.09525454954000
 16     9.45064270431590    11.60335830276488    -1.53745751182653
 16     9.45613532810630    11.59839747819241    -4.64563985690681
 42     7.62151003769820    11.50368588083210    -3.09611599117747
 16     6.75158300142303     9.88205811657133    -1.55822618328082
 16     6.77292428241666     9.90423075584942    -4.66594959927919
 42     4.93201651039488     9.79085793106031    -3.12400792046845
 16     4.06911325232198     8.15118129212477    -1.60220935049726
 16     4.09727026849733     8.19592110396871    -4.70892097843424
 42     2.25647239881383     8.06247026352505    -3.16924647139392
 16     1.41364326892670     6.40696504890378    -1.65298484084013
 16     1.43206153239558     6.46286277763704    -4.75860763346685
 42    -0.40042814146975     6.31681243134598    -3.21161261694773
 16    -1.21703574808464     4.65415541837364    -1.68742371641930
 16    -1.22360582874392     4.70645618364861    -4.79249643208026
 16    20.27499317980603    15.35320209027159    -1.55822619030917
 16    20.28352460962807    15.32363367342624    -4.66594960618391
 42    18.45994544671476    15.23037362348513    -3.11896991361177
 16    17.62804415210511    13.61414885247766    -1.54693048718290
 16    17.62302466808819    13.58420966437056    -4.65507495484808
 42    15.80311873535775    13.49685268323853    -3.10028283658143
 16    14.96078224086106    11.88572979991067    -1.53041251693660
 16    14.95560269260637    11.86304048950149    -4.63893024505510
 42    13.13180923802641    11.78042292374367    -3.08451341183521
 16    12.27444781810845    10.16989306947326    -1.52624291678009
 16    12.28296556724461    10.16188224554463    -4.63483387328824
 42    10.44938419679018    10.07624872933349    -3.08817274489730
 16     9.58112179690407     8.45925963427629    -1.54693048159360
 16     9.60955963199595     8.46988222449779    -4.65507494937164
 42     7.76547943713374     8.37159490187387    -3.11896990567554
 16     6.89775330157755     6.74206981690401    -1.59376239164972
 16     6.94107325966564     6.76992005004542    -4.70085385338993
 42     5.09132576517568     6.65307694772341    -3.17197405683235
 16     4.23773470216856     5.00987790440740    -1.65467602091268
 16     4.28048193152607     5.04728516989479    -4.76045305033223
 42     2.43365867316263     4.91416829580158    -3.22950890183550
 16     1.60393701257962     3.26271217750710    -1.70696238977798
 16     1.62664732586413     3.29742507757622    -4.81186839281921
 42    -0.20831181955236     3.15888098793711    -3.26737660493296
 42    21.24440050317630    13.78900929348037    -3.09611599431731
 16    20.41615301827498    12.15509772982177    -1.53745751243331
 16    20.40911050827911    12.15282138390940    -4.64563985752682
 42    18.59426658765689    12.05371700806720    -3.08817274706749
 16    17.76283315253718    10.42634338170787    -1.52624291683993
 16    17.75163670263835    10.42297220123482    -4.63483387335595
 42    15.93546611438979    10.33496414335674    -3.07576264541564
 16    15.09267131210045     8.71375785029753    -1.51870324603552
 16    15.09267131173874     8.71375784825150    -4.62749669101426
 42    13.26726807544046     8.63303640917893    -3.07576264406095
 16    12.41160755857536     7.01355258677798    -1.53041251310597
 16    12.43384684813875     7.02041161983378    -4.63893024131766
 42    10.59516596376001     6.93747594618818    -3.10028283063976
 16     9.73305085771273     5.31380891686697    -1.56837007263272
 16     9.77838493387507     5.32779589221708    -4.67600007508415
 42     7.92819785362201     5.23301479147819    -3.15035913376179
 16     7.07079236044841     3.60155836251782    -1.62703980853259
 16     7.12830114408154     3.61861255360097    -4.73334013734197
 42     5.27356819720384     3.50796688275303    -3.21375302608087
 16     4.43192681734706     1.87022036343347    -1.68827561865890
 16     4.48191306686736     1.88234898220334    -4.79343410170873
 42     2.63244594764524     1.76067463217446    -3.26766412247852
 16     1.81265334408196     0.12280385860478    -1.72775534248127
 16     1.83560590402200     0.12125125437408    -4.83244327087871
 42    15.09267130411270    26.14127354954658    -3.28896897964330
 16    23.19938647277903    10.69176185620936    -1.54963016785724
 16    23.18798722764687    10.72027408112305    -4.65731633959662
 42    21.37725500712249    10.60381070130594    -3.09525454603437
 16    20.55813063238227     8.95811901592425    -1.54371922790955
 16    20.53658501602145     8.98018863569566    -4.65181470600893
 42    18.72891221020197     8.87858168232076    -3.08451340851197
 16    17.90562413523245     7.24199116349386    -1.53041251267943
 16    17.88856439301652     7.25782143576332    -4.63893024089258
 42    16.07527974570637     7.17327299376363    -3.07576264320450
 16    15.24073296450880     5.54503709918251    -1.52624291477270
 16    15.24341166435282     5.55641909823449    -4.63483387134323
 42    13.41729248607918     5.48226894029856    -3.08451340823655
 16    12.57156462281243     3.85835065128602    -1.54371922882728
 16    12.60145028473952     3.86597489350909    -4.65181470693651
 42    10.76047368835271     3.79108722706664    -3.11817675022805
 16     9.90996178053584     2.16693972138658    -1.58487841695655
 16     9.96321557451090     2.16935224589472    -4.69193746447628
 42     8.11111941475345     2.08415900237452    -3.17214778168997
 16     7.26522806090874     0.45787067819883    -1.63955852979127
 16     7.32678173542640     0.45133092568932    -4.74540949971517
 42     5.47182763548399     0.35309205205657    -3.22966498873178
 42    24.16414593912692     9.15904021433888    -3.12516187906488
 16    23.35373688378715     7.49880880479038    -1.58487841276344
 16    23.32502068259155     7.54372168123065    -4.69193746032984
 42    21.52192793247982     7.42329996849411    -3.11817674804828
 16    20.71692367981792     5.77216485079530    -1.56837007143542
 16    20.68214356698627     5.80443182596338    -4.67600007389037
 42    18.87972923325474     5.70694491687104    -3.10028282998337
 16    18.06884798327697     4.06786506236620    -1.54693048137416
 16    18.04542963158848     4.08718165674169    -4.65507494917249
 42    16.23436314922970     4.01130780910192    -3.08817274375809
 16    15.41121821057308     2.38281751681275    -1.53745751088414
 16    15.41276809627484     2.39005468329464    -4.64563985603666
 42    13.58721324285754     2.32612229240377    -3.09525454692005
 16    12.75231544144053     0.70413457620306    -1.54963017110298
 16    12.78270737893144     0.69975050154602    -4.65731634282023
 42    10.94255983126704     0.63498918992448    -3.12516188435456
 16    26.15620094902503     6.06293673804865    -1.63955852278441
 16    26.13108770733082     6.11951366228958    -4.74540949279862
 42    24.32484827163214     5.98235597723293    -3.17214777705838
 16    23.53090540251554     4.32270663806462    -1.62703980649022
 16    23.48738165067036     4.36398361355207    -4.73334013531235
 42    21.68931994516021     4.24951336152023    -3.15035913312381
 16    20.89766223263233     2.60259468706990    -1.59376239311308
 16    20.85188324456740     2.62618575845723    -4.70085385483147
 42    19.05258904593605     2.53930502112422    -3.11896990697550
 16    18.25143774903580     0.90601334128952    -1.55822618585872
 16    18.22156503805743     0.91340911662682    -4.66594960186132
 42    16.41210339114366     0.84857837264424    -3.09611599242981
 42    27.14364211370797     4.56219572378974    -3.22966498232020
 16    26.34972086108517     2.90305103979368    -1.68827561607018
 16    26.31422404792262     2.94027609766852    -4.79343409913844
 42    24.51057008268343     2.81306059718763    -3.21375302547347
 16    23.72779373008931     1.16504696232560    -1.65467602385308
 16    23.67402447500944     1.18336352148439    -4.76045305323087
 42    21.87794608509915     1.08267898633533    -3.17197406039785
 16    29.17266468044734     1.50840192446945    -1.72775533988137
 16    29.16253299900884     1.52905573294961    -4.83244326829588
 42    27.34433068282645     1.39942776078063    -3.26766412208223
 16   -13.25706537171589    26.02002229998687     4.83244327083844
 16   -13.28001793121702    26.01846968723563     1.72775534244462
 16    -7.76588954284283    25.68994262736327     4.74540949926374
 16    -7.82744321710079    25.68340286915635     1.63955852937819
 42    -9.62084364228075    25.78818149811694     3.22966498847313
 16   -10.61075820982157    24.25892457058480     4.79343410552745
 16   -10.66074445999237    24.27105318245307     1.68827562255716
 42   -12.46022532918171    24.38059891727839     3.26766412695020
 16    -2.30996390264258    25.44152305082948     4.65731634232931
 16    -2.34035583953106    25.43713897285501     1.54963017067627
 42    -4.15011144979542    25.50628436049916     3.12516188380576
 16    -5.12945570577015    23.97192130554630     4.69193746623410
 16    -5.18270950041335    23.97433382625874     1.58487841881258
 42    -6.98155186545328    24.05711454663465     3.17214778415767
 16    -7.96437013510605    22.52266099662658     4.73334014277704
 16    -8.02187892077529    22.53971518359800     1.62703981411767
 42    -9.81910308257546    22.63330666521708     3.21375303299179
 16   -10.81218934788229    21.09398837966360     4.76045306035637
 16   -10.85493657970959    21.13139564138556     1.65467603112145
 16     3.12889375609271    25.22786443645694     4.66594960260179
 16     3.15876646837150    25.23526020813505     1.55822618667952
 42     1.31943210943798    25.29269517821290     3.09611599266416
 16     0.32009681314579    23.75121886904378     4.64563985756939
 16     0.31854692809947    23.75845603315997     1.53745751250494
 42    -1.50545803999779    23.81515125761079     3.09525454828634
 16    -2.49122099862216    22.27529865693563     4.65181470949833
 16    -2.52110666143541    22.28292289766879     1.54371923149328
 42    -4.33219759517134    22.35018632117644     3.11817675350589
 16    -5.31428634909972    20.81347765587160     4.67600007976803
 16    -5.35962042804597    20.82746463024570     1.56837007745340
 42    -7.16447343025211    20.90825875505831     3.15035914027675
 16    -8.15159802324124    19.37135349627240     4.70085386148466
 16    -8.19491798541831    19.39920372892493     1.59376239992017
 42   -10.00134551928717    19.48819659826502     3.17197406745877
 16     8.58135319587267    24.95791003289283     4.76045305627186
 16     8.63512245255782    24.97622658561914     1.65467602697137
 42     6.78527480603736    25.05859456460312     3.17197406271880
 16     5.75921196219643    23.51508779574520     4.70085385893600
 16     5.80499095231028    23.53867886338975     1.59376239732404
 42     3.95991776399407    23.60196853031144     3.11896991004491
 16     2.95275834641838    22.05409189631995     4.65507495274782
 16     2.97617669954725    22.07340848955231     1.54693048504469
 42     1.14169186447800    22.12996574160745     3.08817274658614
 16     0.15074037755456    20.58485445242956     4.63483387397125
 16     0.14806167752163    20.59623645225849     1.52624291747891
 42    -1.67537880074716    20.65900460840902     3.08451341101444
 16    -2.65882443901652    19.12086192763485     4.63893024377169
 16    -2.68106373099969    19.12772096255559     1.53041251562669
 42    -4.49750532422687    19.20379760006815     3.10028283455263
 16    -5.48311165486939    17.67139132006334     4.65507495322230
 16    -5.51154949446784    17.68201391261633     1.54693048551383
 42    -7.32719185147565    17.76967864273394     3.11896991221647
 16    -8.31974700469666    16.23704278719427     4.66594960584594
 16    -8.34108829106698    16.25921542922785     1.55822618993465
 16    14.06986172272073    24.61221782159308     4.83244327299622
 16    14.07999340483920    24.63287162162174     1.72775534461604
 42    12.25165940645129    24.74184578962901     3.26766412653490
 16    11.22155276872562    23.20099745710276     4.79343410703224
 16    11.25704958371269    23.23822250854334     1.68827562406406
 42     9.41789880376775    23.32821295428076     3.21375303234677
 16     8.39471036727326    21.77728994123476     4.73334014356270
 16     8.43823412193052    21.81856691355917     1.62703981488894
 42     6.59664866253966    21.89176019092970     3.15035913972402
 16     5.58947227962767    20.33684172805004     4.67600007998309
 16     5.62425239515990    20.36910870338037     1.56837007764859
 42     3.78705794681768    20.43432863544342     3.10028283444884
 16     2.79589310305914    18.88345211616136     4.63893024371775
 16     2.81295284659855    18.89928239109890     1.53041251556286
 42     0.98260845629981    18.96800055680878     3.07576264516449
 16     0.00000002094110    17.42751570035656     4.62749669101563
 16     0.00000002036776    17.42751570235272     1.51870324603689
 42    -1.82540321563100    17.50823713853446     3.07576264452787
 16    -2.80970572298711    15.97939129943846     4.63483387216277
 16    -2.81822347560282    15.97138047988078     1.52624291561121
 42    -4.64328709481920    16.06502481564497     3.08817274578404
 16    -5.63653596122633    14.54287606413552     4.64563985683083
 16    -5.64202859039343    14.53791524373223     1.53745751169729
 42    -7.47116125398747    14.63758766291558     3.09611599421227
 16    16.71931869244908    22.84384847521655     4.81186840153384
 16    16.69660837864249    22.87856136853503     1.70696239859030
 42    14.88435954666232    22.98239256187330     3.26737661404676
 16    13.86906553490904    21.43481736957921     4.79249644421318
 16    13.87563561644262    21.48711812993792     1.68742372869579
 42    12.05097083367051    21.57907782743911     3.22966499385758
 16    11.03841642261702    20.02175989160879     4.74540950510061
 16    11.06352966697710    20.07833681408130     1.63955853528394
 42     9.23217698776429    20.15891757579515     3.17214778760549
 16     8.23234939325511    18.59755187295769     4.69193746939629
 16     8.26106559804415    18.64246475097762     1.58487842199730
 42     6.42925664455107    18.71797358549741     3.11817675477629
 16     5.44391372355628    17.16108491758999     4.65181470984522
 16     5.46545934297336    17.18315454147201     1.54371923181460
 42     3.63624091910787    17.26269187085296     3.08451341032312
 16     2.65896540920381    15.71830134956205     4.63483387185738
 16     2.67016186038040    15.71493017451294     1.52624291530660
 42     0.84279482167491    15.80630940722806     3.07576264299617
 16    -0.13706859980867    14.27823305776763     4.63893023977949
 16    -0.13188905279781    14.25554375286842     1.53041251153601
 42    -1.96086205480134    14.36085062350118     3.08451340725252
 16    -2.95269265906379    12.84616352764945     4.65181470484615
 16    -2.94435261665775    12.81646966666562     1.54371922669940
 42    -4.77912560963181    12.92993299166499     3.09525454541602
 16    -5.78535196420561    11.42002457918069     4.65731633982119
 16    -5.76635927684702    11.39589642986433     1.54963016805261
 42    17.52633003651513    21.22710525232270     3.22950891343712
 16    16.52473289434188    19.67841077224716     4.75860764723308
 16    16.50631462955761    19.73430849869990     1.65298485481543
 42    14.69224321979887    19.82446111839817     3.21161263138487
 16    13.69154681382846    18.26574504618232     4.72941973269677
 16    13.69384028857568    18.32865449193057     1.62343927637802
 42    11.87268208620969    18.41192712891069     3.16999049000531
 16    10.88278259885320    16.84773063514250     4.68919867453060
 16    10.89456570899186    16.90069150126720     1.58238197176074
 42     9.07147464972044    16.98223334032743     3.12516188830420
 16     8.09531593363168    15.42099947237700     4.65731634509744
 16     8.10671518269565    15.44951170255002     1.54963017345215
 42     6.28458371501684    15.53746285402582     3.09525454879783
 16     5.31643921337916    13.98845216879570     4.64563985607338
 16     5.32348172667323    13.98617582900930     1.53745751094507
 42     3.50159529451332    14.08755654571553     3.08817274335889
 16     2.53035337470918    12.55706388590736     4.65507494742460
 16     2.53537286020227    12.52712470354726     1.54693047959464
 42     0.71044744289981    12.64442086738916     3.10028282820831
 16    -0.27518586191588    11.13222771922129     4.67600007176289
 16    -0.26463189914960    11.08597377125402     1.56837006924574
 42    -2.09705898153553    11.21438719652046     3.11817674656160
 16    -3.10289361699235     9.71307392536201     4.69193745953181
 16    -3.07835602728221     9.66574852680789     1.58487841192076
 42    -4.92136313071384     9.79402940287654     3.12516187931726
 16    19.18994162793663    17.94535244197209     4.70892099015715
 16    19.16178460795740    17.99009225434499     1.60220936242229
 42    17.34914375664971    18.07880328374092     3.16924648528426
 16    16.35485692625841    16.52640494721765     4.69445239946878
 16    16.34365845116443    16.58164808726874     1.58779983990214
 42    14.52578946319914    16.66572019064791     3.14419046569230
 16    13.54115874440655    15.10560997586781     4.66775375658837
 16    13.53893826355564    15.15659663208191     1.56074566963770
 42    11.72039477923992    15.23923996520625     3.11289941732286
 16    10.75023212905590    13.67854424970266     4.64685523950058
 16    10.74769590332517    13.70931954291155     1.53932342595911
 42     8.93191503726117    13.79878696638446     3.09360455592548
 16     7.97200384023451    12.24705598981044     4.64528279060626
 16     7.96522583758376    12.24790089544791     1.53742940054671
 42     6.15172921032367    12.35226426246448     3.09611599105429
 16     5.19085331639397    10.81763987909435     4.66594959887823
 16     5.18232189009023    10.78807146758215     1.55822618283602
 42     3.36727415552657    10.91089993031046     3.11896990400566
 16     2.39238613255023     9.39610581222298     4.70085385115283
 16     2.38992710452014     9.34466451140610     1.59376238935453
 42     0.56782483920318     9.48252815741145     3.15035913016496
 16    -0.43034015727071     7.98259616787640     4.73334013284166
 16    -0.41635512591152     7.92426500523615     1.62703980395129
 42    -2.25062504819330     8.06651498126815     3.17214777593814
 16    -3.27252680359332     6.57084458731932     4.74540949300332
 16    -3.23608637296481     6.52080741852544     1.63955852297162
 42    20.02468786476343    16.35041561378448     3.12400793013052
 16    19.02920028268714    14.81098413745666     4.66034596979952
 16    19.01993056569276    14.84523500791268     1.55288859750025
 42    17.19655275665427    14.93251933025072     3.11042028258433
 16    16.20810160165001    13.38412014405054     4.64213872915520
 16    16.20518341689783    13.42100756818195     1.53470319250159
 42    14.38251390320704    13.50399505304712     3.08902157575947
 16    13.40880853143097    11.95075052425446     4.62717621947996
 16    13.40206394444380    11.97581967516251     1.51955685330374
 42    11.58512671108957    12.06156382951272     3.07774182543105
 16    10.62546196532622    10.51179249537769     4.63116691763217
 16    10.60878127891210    10.51352939266600     1.52344996898181
 42     8.79897357523240    10.61184622855488     3.08907439567695
 16     7.84405401295991     9.07427877122192     4.66034596251886
 16     7.81902675019962     9.04912553063276     1.55288859008993
 42     6.01312345773678     9.16668057016167     3.12400792105373